 Gaussian 03, Revision D.01,
 Gaussian 03:  IA32L-G03RevD.01 13-Oct-2005

 -------------------------------------
 #MP2/6-31G(d) NoSymm Opt=ModRedundant
 -------------------------------------

 SULFAZ, "sulfonamidazole" exocyclic scan (model compound for ACAZAM, a
 cetazolami
 ----------------------------------------------------------------------
 Symbolic Z-matrix:
 Charge =  0 Multiplicity = 1

 SCF Done:  E(RHF) =  -1185.38989355     A.U. after   17 cycles
 E2 =    -0.1389085531D+01 EUMP2 =    -0.11867789790832D+04
 SCF Done:  E(RHF) =  -1185.41656773     A.U. after   14 cycles
 E2 =    -0.1387863305D+01 EUMP2 =    -0.11868044310381D+04
 SCF Done:  E(RHF) =  -1185.42197203     A.U. after   14 cycles
 E2 =    -0.1385637793D+01 EUMP2 =    -0.11868076098244D+04
 SCF Done:  E(RHF) =  -1185.42123641     A.U. after   12 cycles
 E2 =    -0.1386616281D+01 EUMP2 =    -0.11868078526940D+04
 SCF Done:  E(RHF) =  -1185.42091601     A.U. after   11 cycles
 E2 =    -0.1386969855D+01 EUMP2 =    -0.11868078858649D+04
 SCF Done:  E(RHF) =  -1185.42106770     A.U. after   10 cycles
 E2 =    -0.1386822102D+01 EUMP2 =    -0.11868078898007D+04
 SCF Done:  E(RHF) =  -1185.42120089     A.U. after   10 cycles
 E2 =    -0.1386689623D+01 EUMP2 =    -0.11868078905078D+04
 SCF Done:  E(RHF) =  -1185.42119848     A.U. after   10 cycles
 E2 =    -0.1386693355D+01 EUMP2 =    -0.11868078918316D+04
 SCF Done:  E(RHF) =  -1185.42120766     A.U. after    9 cycles
 E2 =    -0.1386684323D+01 EUMP2 =    -0.11868078919841D+04
 SCF Done:  E(RHF) =  -1185.42121647     A.U. after    9 cycles
 E2 =    -0.1386675574D+01 EUMP2 =    -0.11868078920442D+04
 Optimization completed.
    -- Stationary point found.
 E2 =    -0.1387500063D+01 EUMP2 =    -0.11868030482153D+04
 E2 =    -0.1387759589D+01 EUMP2 =    -0.11868073605524D+04
 E2 =    -0.1387370795D+01 EUMP2 =    -0.11868077857893D+04
 E2 =    -0.1387009258D+01 EUMP2 =    -0.11868078826454D+04
 E2 =    -0.1386763293D+01 EUMP2 =    -0.11868079260998D+04
 E2 =    -0.1386690499D+01 EUMP2 =    -0.11868079382404D+04
 E2 =    -0.1386689487D+01 EUMP2 =    -0.11868079404351D+04
 Optimization completed.
 E2 =    -0.1387337682D+01 EUMP2 =    -0.11868031547090D+04
 E2 =    -0.1386830340D+01 EUMP2 =    -0.11868077284582D+04
 E2 =    -0.1386572425D+01 EUMP2 =    -0.11868079124629D+04
 E2 =    -0.1385679431D+01 EUMP2 =    -0.11868090963504D+04
 E2 =    -0.1385448512D+01 EUMP2 =    -0.11868092084091D+04
 E2 =    -0.1385372810D+01 EUMP2 =    -0.11868092106388D+04
 E2 =    -0.1385350662D+01 EUMP2 =    -0.11868092109443D+04
 E2 =    -0.1385347310D+01 EUMP2 =    -0.11868092109752D+04
 E2 =    -0.1385771430D+01 EUMP2 =    -0.11868035116048D+04
 E2 =    -0.1385345261D+01 EUMP2 =    -0.11868077578104D+04
 E2 =    -0.1384951176D+01 EUMP2 =    -0.11868079726474D+04
 E2 =    -0.1384852312D+01 EUMP2 =    -0.11868079826211D+04
 E2 =    -0.1384832469D+01 EUMP2 =    -0.11868079834140D+04
 SCF Done:  E(RHF) =  -1185.42315785     A.U. after    9 cycles
 E2 =    -0.1384825629D+01 EUMP2 =    -0.11868079834822D+04
    -- Stationary point found.
 SCF Done:  E(RHF) =  -1185.41670147     A.U. after   14 cycles
 E2 =    -0.1385388960D+01 EUMP2 =    -0.11868020904306D+04
 SCF Done:  E(RHF) =  -1185.42168708     A.U. after   14 cycles
 E2 =    -0.1384892459D+01 EUMP2 =    -0.11868065795391D+04
 SCF Done:  E(RHF) =  -1185.42290697     A.U. after   14 cycles
 E2 =    -0.1384189623D+01 EUMP2 =    -0.11868070965921D+04
 SCF Done:  E(RHF) =  -1185.42306217     A.U. after   13 cycles
 E2 =    -0.1384111194D+01 EUMP2 =    -0.11868071733639D+04
 SCF Done:  E(RHF) =  -1185.42305986     A.U. after   11 cycles
 E2 =    -0.1384122667D+01 EUMP2 =    -0.11868071825235D+04
 SCF Done:  E(RHF) =  -1185.42304498     A.U. after   11 cycles
 E2 =    -0.1384141038D+01 EUMP2 =    -0.11868071860166D+04
 SCF Done:  E(RHF) =  -1185.42302323     A.U. after   10 cycles
 E2 =    -0.1384164446D+01 EUMP2 =    -0.11868071876746D+04
 SCF Done:  E(RHF) =  -1185.42301231     A.U. after   10 cycles
 E2 =    -0.1384175868D+01 EUMP2 =    -0.11868071881767D+04
 SCF Done:  E(RHF) =  -1185.42300653     A.U. after    9 cycles
 E2 =    -0.1384181739D+01 EUMP2 =    -0.11868071882657D+04
 Optimization completed.
    -- Stationary point found.

                          Input orientation:
 ---------------------------------------------------------------------
 Center     Atomic     Atomic              Coordinates (Angstroms)
 Number     Number      Type              X           Y           Z
 ---------------------------------------------------------------------
    1          6             0        1.340858    2.579092    0.123247
    2          1             0        2.140189    3.295144    0.273181
    3          7             0        0.438455    2.710094   -0.831414
    4          7             0       -0.468365    1.683980   -0.822631
    5          6             0       -0.209236    0.820344    0.142459
    6         16             0        1.159859    1.187857    1.117344
    7         16             0       -1.177041   -0.645218    0.461050
    8          8             0       -0.301911   -1.777182    0.170322
    9          8             0       -1.796874   -0.442471    1.767354
   10          7             0       -2.340321   -0.565957   -0.694503
   11          1             0       -2.268153   -1.294534   -1.397971
   12          1             0       -3.271567   -0.397706   -0.326570
 ---------------------------------------------------------------------

 Alpha  occ. eigenvalues --  -92.24937 -92.03229 -20.58350 -20.58349 -15.65194
 Alpha  occ. eigenvalues --  -15.63974 -15.63035 -11.36132 -11.34818  -9.21869
 Alpha  occ. eigenvalues --   -9.04358  -6.90490  -6.90456  -6.90403  -6.72578
 Alpha  occ. eigenvalues --   -6.72486  -6.72312  -1.48671  -1.38735  -1.36514
 Alpha  occ. eigenvalues --   -1.24359  -1.13972  -1.11592  -0.94788  -0.85083
 Alpha  occ. eigenvalues --   -0.81473  -0.74974  -0.74863  -0.71199  -0.65317
 Alpha  occ. eigenvalues --   -0.64563  -0.61660  -0.61113  -0.54737  -0.52441
 Alpha  occ. eigenvalues --   -0.51730  -0.49438  -0.48407  -0.46986  -0.46115
 Alpha  occ. eigenvalues --   -0.43057  -0.40673
 Alpha virt. eigenvalues --    0.06638   0.13071   0.15765   0.17599   0.21297
 Alpha virt. eigenvalues --    0.24033   0.24726   0.25894   0.26622   0.29853
 Alpha virt. eigenvalues --    0.32281   0.35915   0.40115   0.45284   0.48079

 Mulliken atomic charges:
              1
     1  C   -0.154594
     2  H    0.271232
     3  N   -0.238592
     4  N   -0.224069
     5  C   -0.239447
     6  S    0.393940
     7  S    1.652286
     8  O   -0.667084
     9  O   -0.667088
    10  N   -0.977320
    11  H    0.425376
    12  H    0.425361
 Sum of Mulliken charges=   0.00000

 Dipole moment (field-independent basis, Debye):
    X=     0.4093    Y=     0.9061    Z=    -0.3719  Tot=     1.0616
 Quadrupole moment (field-independent basis, Debye-Ang):
   XX=   -51.8757   YY=   -68.9831   ZZ=   -71.4984
   XY=    11.1452   XZ=     8.2674   YZ=    10.3406

 Normal termination of Gaussian 03 at Sat May  5 13:44:31 2012.
